 Gaussian 09, Revision B.01,
 Gaussian 09:  EM64M-G09RevB.01 12-Aug-2010

 ------------------------
 # geom=connectivity test
 ------------------------

 ---------------
 rovis199_wB97XD
 ---------------
 Symbolic Z-matrix:
 Charge =  0 Multiplicity = 1

                         Standard orientation:
 ---------------------------------------------------------------------
 Center     Atomic      Atomic             Coordinates (Angstroms)
 Number     Number       Type             X           Y           Z
 ---------------------------------------------------------------------
      1         45           0       -0.266929   -0.083961    0.000000
      2         17           0       -1.755420    0.497130    1.806020
      3          6           0       -0.072968   -2.212780    0.705185
      4          6           0        1.028281   -1.370111    1.158654
      5          6           0        1.754337   -0.936412    0.000000
      6          6           0       -1.023821   -2.901006    1.630025
      7          1           0       -1.783574   -3.474061    1.078589
      8          1           0       -1.547123   -2.155457    2.253401
      9          1           0       -0.476681   -3.593529    2.293751
     10          6           0        1.398001   -1.172749    2.594970
     11          1           0        1.864750   -2.084392    3.010762
     12          1           0        0.499463   -0.937026    3.187268
     13          1           0        2.107686   -0.339721    2.717256
     14          6           0        3.088608   -0.259607    0.000000
     15          1           0        3.235366    0.366039    0.893194
     16          1           0        3.235366    0.366039   -0.893194
     17         15           0        0.238322    2.154099    0.000000
     18          6           0       -1.184997    3.289805    0.000000
     19          1           0       -0.836784    4.337067    0.000000
     20          6           0        1.212104    2.681696    1.454683
     21          1           0        2.182476    2.161559    1.477639
     22          1           0        0.637609    2.401417    2.352885
     23          1           0        1.386708    3.771395    1.448367
     24          6           0       -0.072968   -2.212780   -0.705185
     25          6           0        1.028281   -1.370111   -1.158654
     26          6           0       -1.023821   -2.901006   -1.630025
     27          1           0       -1.783574   -3.474061   -1.078589
     28          1           0       -1.547123   -2.155457   -2.253401
     29          1           0       -0.476681   -3.593529   -2.293751
     30          6           0        1.398001   -1.172749   -2.594970
     31          1           0        1.864750   -2.084392   -3.010762
     32          1           0        0.499463   -0.937026   -3.187268
     33          1           0        2.107686   -0.339721   -2.717256
     34          1           0        3.884914   -1.025539    0.000000
     35          1           0       -1.793545    3.078522   -0.892283
     36          1           0       -1.793545    3.078522    0.892283
     37          6           0        1.212104    2.681696   -1.454683
     38          1           0        2.182476    2.161559   -1.477639
     39          1           0        0.637609    2.401417   -2.352885
     40          1           0        1.386708    3.771395   -1.448367
     41         17           0       -1.755420    0.497130   -1.806020
 ---------------------------------------------------------------------

 SCF Done:  E(RHF) =  -6386.33180803     A.U. after   23 cycles

 The electronic state is 1-A'.
 Alpha  occ. eigenvalues -- -825.35530-119.18790-111.96321-111.95959-111.95943
 Alpha  occ. eigenvalues -- -103.49705-103.49704 -79.08563 -22.00340 -19.11797
 Alpha  occ. eigenvalues --  -19.10049 -19.09972 -11.95659 -11.94544 -11.94367
 Alpha  occ. eigenvalues --  -11.92827 -11.92684 -11.09154 -11.09037 -11.07517
 Alpha  occ. eigenvalues --  -11.07467 -11.06425 -11.06425 -11.06133 -11.06129
 Alpha  occ. eigenvalues --  -11.06040 -11.06038 -11.05523 -11.05522 -11.04585
 Alpha  occ. eigenvalues --  -10.19591 -10.19537  -7.63822  -7.63778  -7.63517
 Alpha  occ. eigenvalues --   -7.63497  -7.63473  -7.63471  -7.37889  -5.20581
 Alpha  occ. eigenvalues --   -5.20490  -5.20488  -3.40372  -2.34100  -2.31772
 Alpha  occ. eigenvalues --   -2.31566  -1.18494  -1.03896  -1.02861  -1.02592
 Alpha  occ. eigenvalues --   -0.95575  -0.94063  -0.93841  -0.93294  -0.91912
 Alpha  occ. eigenvalues --   -0.87689  -0.87134  -0.84144  -0.82558  -0.72841
 Alpha  occ. eigenvalues --   -0.68510  -0.68411  -0.61883  -0.61285  -0.59375
 Alpha  occ. eigenvalues --   -0.58441  -0.58428  -0.57146  -0.56572  -0.56195
 Alpha  occ. eigenvalues --   -0.56192  -0.55396  -0.54473  -0.53773  -0.53461
 Alpha  occ. eigenvalues --   -0.53154  -0.52882  -0.52743  -0.50935  -0.50549
 Alpha  occ. eigenvalues --   -0.49371  -0.46162  -0.45699  -0.45572  -0.44814
 Alpha  occ. eigenvalues --   -0.44805  -0.39769  -0.39432  -0.37252  -0.37158
 Alpha  occ. eigenvalues --   -0.33261  -0.32297  -0.31159  -0.30218  -0.28371
 Alpha  occ. eigenvalues --   -0.28043  -0.26612  -0.25727
 Alpha virt. eigenvalues --    0.24229   0.24286   0.29818   0.32344   0.39475
 Alpha virt. eigenvalues --    0.40529   0.44540   0.48168   0.51831   0.54245
 Alpha virt. eigenvalues --    0.56209   0.56409   0.58760   0.60475   0.61100

 Mulliken atomic charges:
              1
     1  Rh   0.581007
     2  Cl  -0.522394
     3  C   -0.028696
     4  C   -0.081532
     5  C   -0.035467
     6  C   -0.176870
     7  H    0.072920
     8  H    0.103255
     9  H    0.067586
    10  C   -0.170368
    11  H    0.065837
    12  H    0.089145
    13  H    0.060470
    14  C   -0.173337
    15  H    0.069816
    16  H    0.069816
    17  P    0.640315
    18  C   -0.304729
    19  H    0.063833
    20  C   -0.310205
    21  H    0.066314
    22  H    0.093030
    23  H    0.069522
    24  C   -0.028696
    25  C   -0.081532
    26  C   -0.176870
    27  H    0.072920
    28  H    0.103255
    29  H    0.067586
    30  C   -0.170368
    31  H    0.065837
    32  H    0.089145
    33  H    0.060470
    34  H    0.081058
    35  H    0.105828
    36  H    0.105828
    37  C   -0.310205
    38  H    0.066314
    39  H    0.093030
    40  H    0.069522
    41  Cl  -0.522394
 Sum of Mulliken atomic charges =   0.00000

 Dipole moment (field-independent basis, Debye):
    X=              8.4099    Y=              0.5851    Z=              0.0000  Tot=              8.4302
 Quadrupole moment (field-independent basis, Debye-Ang):
   XX=           -145.7637   YY=           -118.9573   ZZ=           -145.3047
   XY=              6.5792   XZ=              0.0000   YZ=              0.0000

 Normal termination of Gaussian 09 at Thu Nov 10 13:46:04 2016.
